Reference ID,Material-ID,Composition,is_superconductor,pressure,Temp_critical,measurement_type,space_group,a,b,c,cif_available,comments,Database-ID,synthesis_detail
R-2810,BM-252,FeTe0.75S0.25,True,ambient,7,magnetization,P4/nmm,3.806(9),3.806(9),6.226(4),yes,Exact structure matched,ICSD-180607,"Polycrystalline samples of FeTe1-xSx; (x = 0-30%) were synthesized by the solid-state reaction route. The stoichiometric ratio of high purity (>3N) Fe, Te and S were ground, palletized and encapsulated in an evacuated quartz tube. The encapsulated tube was then heated at 750 o C for over 24 hours and slowly cooled to room temperature. Sintered pellets were again ground, pelletized in a rectangular shape, sealed in an evacuated quartz tube and re-sintered at 750 o C for 12 hours."
R-2810,BM-254,FeTe0.70S0.30,True,ambient,,not_reported,P4/nmm,3.805(7),3.805(7),6.224(2),yes,Exact structure matched,ICSD-180608,"Polycrystalline samples of FeTe1-xSx; (x = 0-30%) were synthesized by the solid-state reaction route. The stoichiometric ratio of high purity (>3N) Fe, Te and S were ground, palletized and encapsulated in an evacuated quartz tube. The encapsulated tube was then heated at 750 o C for over 24 hours and slowly cooled to room temperature. Sintered pellets were again ground, pelletized in a rectangular shape, sealed in an evacuated quartz tube and re-sintered at 750 o C for 12 hours."
R-2810,BM-255,FeTe0.80S0.20,True,ambient,,not_reported,P4/nmm,3.808(7),3.808(7),6.229(1),yes,Exact structure matched,ICSD-180606,"Polycrystalline samples of FeTe1-xSx; (x = 0-30%) were synthesized by the solid-state reaction route. The stoichiometric ratio of high purity (>3N) Fe, Te and S were ground, palletized and encapsulated in an evacuated quartz tube. The encapsulated tube was then heated at 750 o C for over 24 hours and slowly cooled to room temperature. Sintered pellets were again ground, pelletized in a rectangular shape, sealed in an evacuated quartz tube and re-sintered at 750 o C for 12 hours."
R-2810,BM-256,FeTe0.85S0.15,True,ambient,,not_reported,P4/nmm,3.809(1),3.809(1),6.237(6),yes,Exact structure matched,ICSD-180605,"Polycrystalline samples of FeTe1-xSx; (x = 0-30%) were synthesized by the solid-state reaction route. The stoichiometric ratio of high purity (>3N) Fe, Te and S were ground, palletized and encapsulated in an evacuated quartz tube. The encapsulated tube was then heated at 750 o C for over 24 hours and slowly cooled to room temperature. Sintered pellets were again ground, pelletized in a rectangular shape, sealed in an evacuated quartz tube and re-sintered at 750 o C for 12 hours."
R-2810,BM-257,FeTe0.90S0.10,True,ambient,,not_reported,P4/nmm,3.811(9),3.811(9),6.239(3),yes,Exact structure matched,ICSD-180604,"Polycrystalline samples of FeTe1-xSx; (x = 0-30%) were synthesized by the solid-state reaction route. The stoichiometric ratio of high purity (>3N) Fe, Te and S were ground, palletized and encapsulated in an evacuated quartz tube. The encapsulated tube was then heated at 750 o C for over 24 hours and slowly cooled to room temperature. Sintered pellets were again ground, pelletized in a rectangular shape, sealed in an evacuated quartz tube and re-sintered at 750 o C for 12 hours."
R-2810,BM-258,FeTe0.95S0.05,False,ambient,,not_reported,P4/nmm,3.813(4),3.813(4),6.257(6),yes,Exact structure matched,ICSD-180603,"Polycrystalline samples of FeTe1-xSx; (x = 0-30%) were synthesized by the solid-state reaction route. The stoichiometric ratio of high purity (>3N) Fe, Te and S were ground, palletized and encapsulated in an evacuated quartz tube. The encapsulated tube was then heated at 750 o C for over 24 hours and slowly cooled to room temperature. Sintered pellets were again ground, pelletized in a rectangular shape, sealed in an evacuated quartz tube and re-sintered at 750 o C for 12 hours."
R-2810,BM-259,FeTe0.75S0.25,True,ambient,10,resistivity,P4/nmm,3.806(9),3.806(9),6.226(4),yes,Exact structure matched,ICSD-180607,"Polycrystalline samples of FeTe1-xSx; (x = 0-30%) were synthesized by the solid-state reaction route. The stoichiometric ratio of high purity (>3N) Fe, Te and S were ground, palletized and encapsulated in an evacuated quartz tube. The encapsulated tube was then heated at 750 o C for over 24 hours and slowly cooled to room temperature. Sintered pellets were again ground, pelletized in a rectangular shape, sealed in an evacuated quartz tube and re-sintered at 750 o C for 12 hours."
R-2810,BM-260,FeTe,False,ambient,,resistivity,P4/nmm,3.821(9),3.821(9),6.285(5),yes,Exact structure matched,ICSD-180602,"Polycrystalline samples of FeTe1-xSx; (x = 0-30%) were synthesized by the solid-state reaction route. The stoichiometric ratio of high purity (>3N) Fe, Te and S were ground, palletized and encapsulated in an evacuated quartz tube. The encapsulated tube was then heated at 750 o C for over 24 hours and slowly cooled to room temperature. Sintered pellets were again ground, pelletized in a rectangular shape, sealed in an evacuated quartz tube and re-sintered at 750 o C for 12 hours."
R-3376,BM-261,K0.26(PC)yZrNCl,True,ambient,11.5,magnetization,P3m,3.625,3.625,21.83,,,,K0.26ZrNCl phase immersed into PC (propylene carbonate).
R-3376,BM-262,K0.26ZrNCl,True,ambient,11.5,magnetization,P3m,3.6295,3.6295,10.965,,,,"β-ZrNCl was dispersed in [0.1 M K-naphthalene solution in THF (K-Naph/THF)] in such a way that the K/ZrNCl molar ratios in the reactant ranged from 0.1 to 0.5 under stirring for 12 h at room temperature. The reactant molar ratio was >= 0.3 (specifically, K/Zr atomic ratio found to be 0.26 by ICP analysis)."
R-3376,BM-264,K0.08(THF)yZrNCl,True,ambient,15,magnetization,P3m,3.6143,3.6143,13.1449,,,,The intermediate-stage phase K0.08ZrNCl was reversibly reverted to the initial co-intercalated phase upon immersion into THF.
R-3376,BM-265,K0.08(THF)yZrNCl,True,ambient,15,magnetization,P3m,3.6143,3.6143,13.1449,,,,"β-ZrNCl was dispersed in [0.1 M K-naphthalene solution in THF (K-Naph/THF)] in such a way that the K/ZrNCl molar ratios in the reactant ranged from 0.1 to 0.5 under stirring for 12 h at room temperature. The reactant molar ratio was < 0.3 (specifically, K/Zr atomic ratio found to be 0.08 by ICP analysis)."
R-3376,BM-271,β-ZrNCl,False,ambient,,not_reported,R-3m,3.6057,3.6057,27.6748,yes,Exact structure matched,ICSD-213431,"β-ZrNCl was prepared by flowing NH4Cl vapor over ZrH2 in a N2 stream at 650 ␁C, and then recrystallized by chemical transport with the aid of NH4Cl in a vacuum-sealed fused-silica tube placed horizontally in a two-zone furnace (750-850 ␁C), as described elsewhere."
R-3498,BM-273,SrFe1.6Co0.4As2,True,ambient,12.9,magnetization,I4/mmm,3.9293,3.9293,12.2711,,,,"Samples were prepared by a sintering technique in glassy-carbon crucibles which were welded into tantalum containers and sealed into evacuated quartz tubes for heat treatment at 900 ṯC for 16 h followed by two re-grinding and compaction steps. First precursors SrAs, Co2As and Fe2As were synthesized from elemental powders sintered at 600 ṯC for 48h (Fe, Co powder, 99.9 wt.%; As sublimed lumps 99.999 wt.%; Sr 99.99 wt.%. These educts were then powdered, blended in stoichiometric ratios, compacted, and heat treated. All steps were carried out within an argon-filled glove box (O2, H2O < 1 ppm). This mode of synthesis helps to prevent possible contamination by toxic arsenic. Samples were obtained in the form of sintered pellets."
R-3498,BM-274,SrFe1.7Co0.3As2,True,ambient,13.2,magnetization,I4/mmm,3.9291,3.9291,12.2704,,,,"Samples were prepared by a sintering technique in glassy-carbon crucibles which were welded into tantalum containers and sealed into evacuated quartz tubes for heat treatment at 900 ṯC for 16 h followed by two re-grinding and compaction steps. First precursors SrAs, Co2As and Fe2As were synthesized from elemental powders sintered at 600 ṯC for 48h (Fe, Co powder, 99.9 wt.%; As sublimed lumps 99.999 wt.%; Sr 99.99 wt.%. These educts were then powdered, blended in stoichiometric ratios, compacted, and heat treated. All steps were carried out within an argon-filled glove box (O2, H2O < 1 ppm). This mode of synthesis helps to prevent possible contamination by toxic arsenic. Samples were obtained in the form of sintered pellets."
R-3498,BM-275,SrFe1.75Co0.25As2,True,ambient,18.1,magnetization,I4/mmm,3.9296,3.9296,12.2925,,,,"Samples were prepared by a sintering technique in glassy-carbon crucibles which were welded into tantalum containers and sealed into evacuated quartz tubes for heat treatment at 900 ṯC for 16 h followed by two re-grinding and compaction steps. First precursors SrAs, Co2As and Fe2As were synthesized from elemental powders sintered at 600 ṯC for 48h (Fe, Co powder, 99.9 wt.%; As sublimed lumps 99.999 wt.%; Sr 99.99 wt.%. These educts were then powdered, blended in stoichiometric ratios, compacted, and heat treated. All steps were carried out within an argon-filled glove box (O2, H2O < 1 ppm). This mode of synthesis helps to prevent possible contamination by toxic arsenic. Samples were obtained in the form of sintered pellets."
R-3498,BM-276,SrFe1.8Co0.2As2,True,ambient,19.2,magnetization,I4/mmm,3.9278,3.9278,12.3026,,,,"Samples were prepared by a sintering technique in glassy-carbon crucibles which were welded into tantalum containers and sealed into evacuated quartz tubes for heat treatment at 900 ṯC for 16 h followed by two re-grinding and compaction steps. First precursors SrAs, Co2As and Fe2As were synthesized from elemental powders sintered at 600 ṯC for 48h (Fe, Co powder, 99.9 wt.%; As sublimed lumps 99.999 wt.%; Sr 99.99 wt.%. These educts were then powdered, blended in stoichiometric ratios, compacted, and heat treated. All steps were carried out within an argon-filled glove box (O2, H2O < 1 ppm). This mode of synthesis helps to prevent possible contamination by toxic arsenic. Samples were obtained in the form of sintered pellets."
R-3498,BM-277,SrFe1.85Co0.15As2,False,ambient,<1.8,magnetization,I4/mmm,3.9272,3.9272,12.3123,,,,"Samples were prepared by a sintering technique in glassy-carbon crucibles which were welded into tantalum containers and sealed into evacuated quartz tubes for heat treatment at 900 ṯC for 16 h followed by two re-grinding and compaction steps. First precursors SrAs, Co2As and Fe2As were synthesized from elemental powders sintered at 600 ṯC for 48h (Fe, Co powder, 99.9 wt.%; As sublimed lumps 99.999 wt.%; Sr 99.99 wt.%. These educts were then powdered, blended in stoichiometric ratios, compacted, and heat treated. All steps were carried out within an argon-filled glove box (O2, H2O < 1 ppm). This mode of synthesis helps to prevent possible contamination by toxic arsenic. Samples were obtained in the form of sintered pellets."
R-3498,BM-278,SrFe1.5Co0.5As2,False,ambient,<1.8,magnetization,I4/mmm,3.9287,3.9287,12.2187,,,,"Samples were prepared by a sintering technique in glassy-carbon crucibles which were welded into tantalum containers and sealed into evacuated quartz tubes for heat treatment at 900 ṯC for 16 h followed by two re-grinding and compaction steps. First precursors SrAs, Co2As and Fe2As were synthesized from elemental powders sintered at 600 ṯC for 48h (Fe, Co powder, 99.9 wt.%; As sublimed lumps 99.999 wt.%; Sr 99.99 wt.%. These educts were then powdered, blended in stoichiometric ratios, compacted, and heat treated. All steps were carried out within an argon-filled glove box (O2, H2O < 1 ppm). This mode of synthesis helps to prevent possible contamination by toxic arsenic. Samples were obtained in the form of sintered pellets."
R-3498,BM-279,SrFe2As2,False,ambient,,not_reported,I4/mmm,3.924,3.924,12.34,,,,"Samples were prepared by a sintering technique in glassy-carbon crucibles which were welded into tantalum containers and sealed into evacuated quartz tubes for heat treatment at 900 ṯC for 16 h followed by two re-grinding and compaction steps. First precursors SrAs, Co2As and Fe2As were synthesized from elemental powders sintered at 600 ṯC for 48h (Fe, Co powder, 99.9 wt.%; As sublimed lumps 99.999 wt.%; Sr 99.99 wt.%. These educts were then powdered, blended in stoichiometric ratios, compacted, and heat treated. All steps were carried out within an argon-filled glove box (O2, H2O < 1 ppm). This mode of synthesis helps to prevent possible contamination by toxic arsenic. Samples were obtained in the form of sintered pellets."
R-3498,BM-280,SrFe1.9Co0.1As2,False,ambient,,not_reported,I4/mmm,3.9291,3.9291,12.3321,,,,"Samples were prepared by a sintering technique in glassy-carbon crucibles which were welded into tantalum containers and sealed into evacuated quartz tubes for heat treatment at 900 ṯC for 16 h followed by two re-grinding and compaction steps. First precursors SrAs, Co2As and Fe2As were synthesized from elemental powders sintered at 600 ṯC for 48h (Fe, Co powder, 99.9 wt.%; As sublimed lumps 99.999 wt.%; Sr 99.99 wt.%. These educts were then powdered, blended in stoichiometric ratios, compacted, and heat treated. All steps were carried out within an argon-filled glove box (O2, H2O < 1 ppm). This mode of synthesis helps to prevent possible contamination by toxic arsenic. Samples were obtained in the form of sintered pellets."
R-3498,BM-281,SrFeCoAs2,False,ambient,,not_reported,I4/mmm,3.9618,3.9618,11.6378,,,,"Samples were prepared by a sintering technique in glassy-carbon crucibles which were welded into tantalum containers and sealed into evacuated quartz tubes for heat treatment at 900 ṯC for 16 h followed by two re-grinding and compaction steps. First precursors SrAs, Co2As and Fe2As were synthesized from elemental powders sintered at 600 ṯC for 48h (Fe, Co powder, 99.9 wt.%; As sublimed lumps 99.999 wt.%; Sr 99.99 wt.%. These educts were then powdered, blended in stoichiometric ratios, compacted, and heat treated. All steps were carried out within an argon-filled glove box (O2, H2O < 1 ppm). This mode of synthesis helps to prevent possible contamination by toxic arsenic. Samples were obtained in the form of sintered pellets."
R-3786,BM-310,Li0.6NbO2,True,ambient,17,resistivity,P-3m1,2.908,2.908,10.477,yes,Approximate composition matched,ICSD-202572,"The sample (b) Li1−xNbO2 (x = 0.60) was obtained by sintering at 1100 ◦C × 70 h. (The general solid state synthesis process involving precursor synthesis and final sintering applies, see entry for Li0.9NbO2 for full details)."
R-3786,BM-311,Li0.5NbO2,True,ambient,14-17,resistivity,P-3m1,2.91,2.91,10.502,,,,"The sample (a) Li1−xNbO2 (x = 0.50) was obtained by sintering at 1100 ◦C × 70 h + 1035 ◦C × 50 h. (The general solid state synthesis process involving precursor synthesis and final sintering applies, see entry for Li0.9NbO2 for full details)."
R-3786,BM-312,Li0.9NbO2,False,ambient,,resistivity,P-3m1,2.903,2.903,10.397,,,,"Polycrystalline Li1−xNbO2 was synthesized with a solid state reaction. The purities of the starting powders of Li2CO3, Nb and Nb2O5 are better than 99.9%. Firstly, stoichiometric amounts of Nb2O5 and 3Nb powders thoroughly mixed and calcined, and followed by ground and palletized. The palletized samples were wrapped in a Nb foil and heated in an evacuated quartz tube with vacuum level better than 10−5 Torr at 1100 ◦C for 70 h. By this solid reaction, NbO was obtained according to the chemical reaction: Nb2O5 + 3Nb = 5NbO. Secondly, the same synthesis method is employed to synthesize Li3NbO4 by sintering the mixtures of Li2CO3 and Nb2O5 in Al2O3 crucible at 900 ◦C for 50 h in air, Li3NbO4 is obtained based on the reaction: 3Li2CO3 + Nb2O5 ⇒ 2Li3NbO4 + 3CO2↑. Finally, the synthesized NbO and Li3NbO4 were ground, mixed, and pressed into pellets. The pellets were wrapped in Nb foil and sintered in an evacuated quartz tube with vacuum level better than 10−5 Torr at 1050 ◦C for 70 h. The sample (c) Li1−xNbO2 (x = 0.90) was obtained by sintering at 1050 ◦C × 50 h."
R-4231,BM-333,LaO0.89F0.11FeAs,True,ambient,12.6,magnetization,P4/nmm,4.03,4.03,8.706,yes,Approximate composition matched,ICSD-184647,"The F-doped LaO1−xFxFeAs polycrystalline sample was synthesized by a two-step method. La2O3, Fe, As, LaF3 powders and La pieces (the purities of all chemicals were higher than 99.99%) were used as starting materials and weighed according to the chemical stoichiometry of LaO1−xFxFeAs. As a first step, the precursor LaFeAs alloy was prepared by the argon arc-melting method. The weighed Fe and As powders (here, 20% As was added to compensate for the volatilization during alloying) were pressed into pellets and put on a water-cooled copper stage together with the La pieces. The mixtures were then melted and alloyed for 2 min. The alloyed ingot became brittle and was ground to fine powder. The second step was performed through a solid-state reaction process. The prepared LaFeAs powder was mixed with weighed LaF3 and La2O3 powders, then ground thoroughly and pressed into pellets. After being enclosed in evacuated quartz tubes (with a vacuum better than 10−3 Pa), the sealed sample was sintered at 1240 ◦C for 50 h in a muffle furnace, with heating and cooling rates of 100 ◦C h−1. The sample for measurements was processed into approximately 1.34 × 1.1 × 0.4 mm3 rectangular shape."
R-4231,BM-334,LaO0.89F0.11FeAs,True,1.03,17,magnetization,P4/nmm,4.03,4.03,8.706,yes,Approximate composition matched,ICSD-184647,"The F-doped LaO1−xFxFeAs polycrystalline sample was synthesized by a two-step method. La2O3, Fe, As, LaF3 powders and La pieces (the purities of all chemicals were higher than 99.99%) were used as starting materials and weighed according to the chemical stoichiometry of LaO1−xFxFeAs. As a first step, the precursor LaFeAs alloy was prepared by the argon arc-melting method. The weighed Fe and As powders (here, 20% As was added to compensate for the volatilization during alloying) were pressed into pellets and put on a water-cooled copper stage together with the La pieces. The mixtures were then melted and alloyed for 2 min. The alloyed ingot became brittle and was ground to fine powder. The second step was performed through a solid-state reaction process. The prepared LaFeAs powder was mixed with weighed LaF3 and La2O3 powders, then ground thoroughly and pressed into pellets. After being enclosed in evacuated quartz tubes (with a vacuum better than 10−3 Pa), the sealed sample was sintered at 1240 ◦C for 50 h in a muffle furnace, with heating and cooling rates of 100 ◦C h−1. The sample for measurements was processed into approximately 1.34 × 1.1 × 0.4 mm3 rectangular shape."
R-4231,BM-335,LaO0.89F0.11FeAs,True,ambient,19.2,magnetization,P4/nmm,4.03,4.03,8.706,yes,Approximate composition matched,ICSD-184647,"The F-doped LaO1−xFxFeAs polycrystalline sample was synthesized by a two-step method. La2O3, Fe, As, LaF3 powders and La pieces (the purities of all chemicals were higher than 99.99%) were used as starting materials and weighed according to the chemical stoichiometry of LaO1−xFxFeAs. As a first step, the precursor LaFeAs alloy was prepared by the argon arc-melting method. The weighed Fe and As powders (here, 20% As was added to compensate for the volatilization during alloying) were pressed into pellets and put on a water-cooled copper stage together with the La pieces. The mixtures were then melted and alloyed for 2 min. The alloyed ingot became brittle and was ground to fine powder. The second step was performed through a solid-state reaction process. The prepared LaFeAs powder was mixed with weighed LaF3 and La2O3 powders, then ground thoroughly and pressed into pellets. After being enclosed in evacuated quartz tubes (with a vacuum better than 10−3 Pa), the sealed sample was sintered at 1240 ◦C for 50 h in a muffle furnace, with heating and cooling rates of 100 ◦C h−1. The sample for measurements was processed into approximately 1.34 × 1.1 × 0.4 mm3 rectangular shape."